# vtk DataFile Version 3.0
TPZGeoMesh VTK Visualization
ASCII

DATASET UNSTRUCTURED_GRID
POINTS 26 float
0 0 0 
8 0 0 
0 0 0 
1 0 0 
0.5 0 0 
1 0 0 
2 0 0 
1.5 0 0 
2 0 0 
3 0 0 
2.5 0 0 
3 0 0 
4 0 0 
3.5 0 0 
4 0 0 
5 0 0 
4.5 0 0 
5 0 0 
6 0 0 
5.5 0 0 
6 0 0 
7 0 0 
6.5 0 0 
7 0 0 
8 0 0 
7.5 0 0 

CELLS 10 36
1 0
1 1
3 2 3 4
3 5 6 7
3 8 9 10
3 11 12 13
3 14 15 16
3 17 18 19
3 20 21 22
3 23 24 25

CELL_TYPES 10
1
1
21
21
21
21
21
21
21
21

CELL_DATA 10
FIELD FieldData 1
material 1 10 int
3
3
1
1
1
1
1
1
1
1
FIELD FieldData 1
elindex 1 10 int
0
1
2
3
4
5
6
7
8
9
POINT_DATA 26
SCALARS Solution float
LOOKUP_TABLE default
-2.4e-11 
-2.4e-11 
-2.4e-11 
-21 
-10.5 
-21 
-36 
-28.5 
-36 
-45 
-40.5 
-45 
-48 
-46.5 
-48 
-45 
-46.5 
-45 
-36 
-40.5 
-36 
-21 
-28.5 
-21 
-2.4e-11 
-10.5 
VECTORS GradSolution float
0 0 0 
0 0 0 
-21 -0 -0 
-21 -0 -0 
-21 -0 -0 
-15 -0 -0 
-15 -0 -0 
-15 -0 -0 
-9 -0 -0 
-9 -0 -0 
-9 -0 -0 
-3 -0 -0 
-3 -0 -0 
-3 -0 -0 
3 0 0 
3 0 0 
3 0 0 
9 0 0 
9 0 0 
9 0 0 
15 0 0 
15 0 0 
15 0 0 
21 0 0 
21 0 0 
21 0 0 
