# vtk DataFile Version 3.0
TPZGeoMesh VTK Visualization
ASCII

DATASET UNSTRUCTURED_GRID
POINTS 62 float
0 0 0 
10 0 0 
0 0 0 
0.5 0 0 
0.25 0 0 
0.5 0 0 
1 0 0 
0.75 0 0 
1 0 0 
1.5 0 0 
1.25 0 0 
1.5 0 0 
2 0 0 
1.75 0 0 
2 0 0 
2.5 0 0 
2.25 0 0 
2.5 0 0 
3 0 0 
2.75 0 0 
3 0 0 
3.5 0 0 
3.25 0 0 
3.5 0 0 
4 0 0 
3.75 0 0 
4 0 0 
4.5 0 0 
4.25 0 0 
4.5 0 0 
5 0 0 
4.75 0 0 
5 0 0 
5.5 0 0 
5.25 0 0 
5.5 0 0 
6 0 0 
5.75 0 0 
6 0 0 
6.5 0 0 
6.25 0 0 
6.5 0 0 
7 0 0 
6.75 0 0 
7 0 0 
7.5 0 0 
7.25 0 0 
7.5 0 0 
8 0 0 
7.75 0 0 
8 0 0 
8.5 0 0 
8.25 0 0 
8.5 0 0 
9 0 0 
8.75 0 0 
9 0 0 
9.5 0 0 
9.25 0 0 
9.5 0 0 
10 0 0 
9.75 0 0 

CELLS 22 84
1 0
1 1
3 2 3 4
3 5 6 7
3 8 9 10
3 11 12 13
3 14 15 16
3 17 18 19
3 20 21 22
3 23 24 25
3 26 27 28
3 29 30 31
3 32 33 34
3 35 36 37
3 38 39 40
3 41 42 43
3 44 45 46
3 47 48 49
3 50 51 52
3 53 54 55
3 56 57 58
3 59 60 61

CELL_TYPES 22
1
1
21
21
21
21
21
21
21
21
21
21
21
21
21
21
21
21
21
21
21
21

CELL_DATA 22
FIELD FieldData 1
material 1 22 int
3
3
1
1
1
1
1
1
1
1
1
1
1
1
1
1
1
1
1
1
1
1
FIELD FieldData 1
elindex 1 22 int
0
1
2
3
4
5
6
7
8
9
10
11
12
13
14
15
16
17
18
19
20
21
POINT_DATA 62
SCALARS Solution float
LOOKUP_TABLE default
-3e-11 
-3e-11 
-3e-11 
-14.25 
-7.125 
-14.25 
-27 
-20.625 
-27 
-38.25 
-32.625 
-38.25 
-48 
-43.125 
-48 
-56.25 
-52.125 
-56.25 
-63 
-59.625 
-63 
-68.25 
-65.625 
-68.25 
-72 
-70.125 
-72 
-74.25 
-73.125 
-74.25 
-75 
-74.625 
-75 
-74.25 
-74.625 
-74.25 
-72 
-73.125 
-72 
-68.25 
-70.125 
-68.25 
-63 
-65.625 
-63 
-56.25 
-59.625 
-56.25 
-48 
-52.125 
-48 
-38.25 
-43.125 
-38.25 
-27 
-32.625 
-27 
-14.25 
-20.625 
-14.25 
-3e-11 
-7.125 
VECTORS GradSolution float
0 0 0 
0 0 0 
-28.5 -0 -0 
-28.5 -0 -0 
-28.5 -0 -0 
-25.5 -0 -0 
-25.5 -0 -0 
-25.5 -0 -0 
-22.5 -0 -0 
-22.5 -0 -0 
-22.5 -0 -0 
-19.5 -0 -0 
-19.5 -0 -0 
-19.5 -0 -0 
-16.5 -0 -0 
-16.5 -0 -0 
-16.5 -0 -0 
-13.5 -0 -0 
-13.5 -0 -0 
-13.5 -0 -0 
-10.5 -0 -0 
-10.5 -0 -0 
-10.5 -0 -0 
-7.5 -0 -0 
-7.5 -0 -0 
-7.5 -0 -0 
-4.5 -0 -0 
-4.5 -0 -0 
-4.5 -0 -0 
-1.5 -0 -0 
-1.5 -0 -0 
-1.5 -0 -0 
1.5 0 0 
1.5 0 0 
1.5 0 0 
4.5 0 0 
4.5 0 0 
4.5 0 0 
7.5 0 0 
7.5 0 0 
7.5 0 0 
10.5 0 0 
10.5 0 0 
10.5 0 0 
13.5 0 0 
13.5 0 0 
13.5 0 0 
16.5 0 0 
16.5 0 0 
16.5 0 0 
19.5 0 0 
19.5 0 0 
19.5 0 0 
22.5 0 0 
22.5 0 0 
22.5 0 0 
25.5 0 0 
25.5 0 0 
25.5 0 0 
28.5 0 0 
28.5 0 0 
28.5 0 0 
