# vtk DataFile Version 3.0
TPZGeoMesh VTK Visualization
ASCII

DATASET UNSTRUCTURED_GRID
POINTS 482 float
0 0 0 
10 0 0 
0 0 0 
0.0625 0 0 
0.03125 0 0 
0.0625 0 0 
0.125 0 0 
0.09375 0 0 
0.125 0 0 
0.1875 0 0 
0.15625 0 0 
0.1875 0 0 
0.25 0 0 
0.21875 0 0 
0.25 0 0 
0.3125 0 0 
0.28125 0 0 
0.3125 0 0 
0.375 0 0 
0.34375 0 0 
0.375 0 0 
0.4375 0 0 
0.40625 0 0 
0.4375 0 0 
0.5 0 0 
0.46875 0 0 
0.5 0 0 
0.5625 0 0 
0.53125 0 0 
0.5625 0 0 
0.625 0 0 
0.59375 0 0 
0.625 0 0 
0.6875 0 0 
0.65625 0 0 
0.6875 0 0 
0.75 0 0 
0.71875 0 0 
0.75 0 0 
0.8125 0 0 
0.78125 0 0 
0.8125 0 0 
0.875 0 0 
0.84375 0 0 
0.875 0 0 
0.9375 0 0 
0.90625 0 0 
0.9375 0 0 
1 0 0 
0.96875 0 0 
1 0 0 
1.0625 0 0 
1.03125 0 0 
1.0625 0 0 
1.125 0 0 
1.09375 0 0 
1.125 0 0 
1.1875 0 0 
1.15625 0 0 
1.1875 0 0 
1.25 0 0 
1.21875 0 0 
1.25 0 0 
1.3125 0 0 
1.28125 0 0 
1.3125 0 0 
1.375 0 0 
1.34375 0 0 
1.375 0 0 
1.4375 0 0 
1.40625 0 0 
1.4375 0 0 
1.5 0 0 
1.46875 0 0 
1.5 0 0 
1.5625 0 0 
1.53125 0 0 
1.5625 0 0 
1.625 0 0 
1.59375 0 0 
1.625 0 0 
1.6875 0 0 
1.65625 0 0 
1.6875 0 0 
1.75 0 0 
1.71875 0 0 
1.75 0 0 
1.8125 0 0 
1.78125 0 0 
1.8125 0 0 
1.875 0 0 
1.84375 0 0 
1.875 0 0 
1.9375 0 0 
1.90625 0 0 
1.9375 0 0 
2 0 0 
1.96875 0 0 
2 0 0 
2.0625 0 0 
2.03125 0 0 
2.0625 0 0 
2.125 0 0 
2.09375 0 0 
2.125 0 0 
2.1875 0 0 
2.15625 0 0 
2.1875 0 0 
2.25 0 0 
2.21875 0 0 
2.25 0 0 
2.3125 0 0 
2.28125 0 0 
2.3125 0 0 
2.375 0 0 
2.34375 0 0 
2.375 0 0 
2.4375 0 0 
2.40625 0 0 
2.4375 0 0 
2.5 0 0 
2.46875 0 0 
2.5 0 0 
2.5625 0 0 
2.53125 0 0 
2.5625 0 0 
2.625 0 0 
2.59375 0 0 
2.625 0 0 
2.6875 0 0 
2.65625 0 0 
2.6875 0 0 
2.75 0 0 
2.71875 0 0 
2.75 0 0 
2.8125 0 0 
2.78125 0 0 
2.8125 0 0 
2.875 0 0 
2.84375 0 0 
2.875 0 0 
2.9375 0 0 
2.90625 0 0 
2.9375 0 0 
3 0 0 
2.96875 0 0 
3 0 0 
3.0625 0 0 
3.03125 0 0 
3.0625 0 0 
3.125 0 0 
3.09375 0 0 
3.125 0 0 
3.1875 0 0 
3.15625 0 0 
3.1875 0 0 
3.25 0 0 
3.21875 0 0 
3.25 0 0 
3.3125 0 0 
3.28125 0 0 
3.3125 0 0 
3.375 0 0 
3.34375 0 0 
3.375 0 0 
3.4375 0 0 
3.40625 0 0 
3.4375 0 0 
3.5 0 0 
3.46875 0 0 
3.5 0 0 
3.5625 0 0 
3.53125 0 0 
3.5625 0 0 
3.625 0 0 
3.59375 0 0 
3.625 0 0 
3.6875 0 0 
3.65625 0 0 
3.6875 0 0 
3.75 0 0 
3.71875 0 0 
3.75 0 0 
3.8125 0 0 
3.78125 0 0 
3.8125 0 0 
3.875 0 0 
3.84375 0 0 
3.875 0 0 
3.9375 0 0 
3.90625 0 0 
3.9375 0 0 
4 0 0 
3.96875 0 0 
4 0 0 
4.0625 0 0 
4.03125 0 0 
4.0625 0 0 
4.125 0 0 
4.09375 0 0 
4.125 0 0 
4.1875 0 0 
4.15625 0 0 
4.1875 0 0 
4.25 0 0 
4.21875 0 0 
4.25 0 0 
4.3125 0 0 
4.28125 0 0 
4.3125 0 0 
4.375 0 0 
4.34375 0 0 
4.375 0 0 
4.4375 0 0 
4.40625 0 0 
4.4375 0 0 
4.5 0 0 
4.46875 0 0 
4.5 0 0 
4.5625 0 0 
4.53125 0 0 
4.5625 0 0 
4.625 0 0 
4.59375 0 0 
4.625 0 0 
4.6875 0 0 
4.65625 0 0 
4.6875 0 0 
4.75 0 0 
4.71875 0 0 
4.75 0 0 
4.8125 0 0 
4.78125 0 0 
4.8125 0 0 
4.875 0 0 
4.84375 0 0 
4.875 0 0 
4.9375 0 0 
4.90625 0 0 
4.9375 0 0 
5 0 0 
4.96875 0 0 
5 0 0 
5.0625 0 0 
5.03125 0 0 
5.0625 0 0 
5.125 0 0 
5.09375 0 0 
5.125 0 0 
5.1875 0 0 
5.15625 0 0 
5.1875 0 0 
5.25 0 0 
5.21875 0 0 
5.25 0 0 
5.3125 0 0 
5.28125 0 0 
5.3125 0 0 
5.375 0 0 
5.34375 0 0 
5.375 0 0 
5.4375 0 0 
5.40625 0 0 
5.4375 0 0 
5.5 0 0 
5.46875 0 0 
5.5 0 0 
5.5625 0 0 
5.53125 0 0 
5.5625 0 0 
5.625 0 0 
5.59375 0 0 
5.625 0 0 
5.6875 0 0 
5.65625 0 0 
5.6875 0 0 
5.75 0 0 
5.71875 0 0 
5.75 0 0 
5.8125 0 0 
5.78125 0 0 
5.8125 0 0 
5.875 0 0 
5.84375 0 0 
5.875 0 0 
5.9375 0 0 
5.90625 0 0 
5.9375 0 0 
6 0 0 
5.96875 0 0 
6 0 0 
6.0625 0 0 
6.03125 0 0 
6.0625 0 0 
6.125 0 0 
6.09375 0 0 
6.125 0 0 
6.1875 0 0 
6.15625 0 0 
6.1875 0 0 
6.25 0 0 
6.21875 0 0 
6.25 0 0 
6.3125 0 0 
6.28125 0 0 
6.3125 0 0 
6.375 0 0 
6.34375 0 0 
6.375 0 0 
6.4375 0 0 
6.40625 0 0 
6.4375 0 0 
6.5 0 0 
6.46875 0 0 
6.5 0 0 
6.5625 0 0 
6.53125 0 0 
6.5625 0 0 
6.625 0 0 
6.59375 0 0 
6.625 0 0 
6.6875 0 0 
6.65625 0 0 
6.6875 0 0 
6.75 0 0 
6.71875 0 0 
6.75 0 0 
6.8125 0 0 
6.78125 0 0 
6.8125 0 0 
6.875 0 0 
6.84375 0 0 
6.875 0 0 
6.9375 0 0 
6.90625 0 0 
6.9375 0 0 
7 0 0 
6.96875 0 0 
7 0 0 
7.0625 0 0 
7.03125 0 0 
7.0625 0 0 
7.125 0 0 
7.09375 0 0 
7.125 0 0 
7.1875 0 0 
7.15625 0 0 
7.1875 0 0 
7.25 0 0 
7.21875 0 0 
7.25 0 0 
7.3125 0 0 
7.28125 0 0 
7.3125 0 0 
7.375 0 0 
7.34375 0 0 
7.375 0 0 
7.4375 0 0 
7.40625 0 0 
7.4375 0 0 
7.5 0 0 
7.46875 0 0 
7.5 0 0 
7.5625 0 0 
7.53125 0 0 
7.5625 0 0 
7.625 0 0 
7.59375 0 0 
7.625 0 0 
7.6875 0 0 
7.65625 0 0 
7.6875 0 0 
7.75 0 0 
7.71875 0 0 
7.75 0 0 
7.8125 0 0 
7.78125 0 0 
7.8125 0 0 
7.875 0 0 
7.84375 0 0 
7.875 0 0 
7.9375 0 0 
7.90625 0 0 
7.9375 0 0 
8 0 0 
7.96875 0 0 
8 0 0 
8.0625 0 0 
8.03125 0 0 
8.0625 0 0 
8.125 0 0 
8.09375 0 0 
8.125 0 0 
8.1875 0 0 
8.15625 0 0 
8.1875 0 0 
8.25 0 0 
8.21875 0 0 
8.25 0 0 
8.3125 0 0 
8.28125 0 0 
8.3125 0 0 
8.375 0 0 
8.34375 0 0 
8.375 0 0 
8.4375 0 0 
8.40625 0 0 
8.4375 0 0 
8.5 0 0 
8.46875 0 0 
8.5 0 0 
8.5625 0 0 
8.53125 0 0 
8.5625 0 0 
8.625 0 0 
8.59375 0 0 
8.625 0 0 
8.6875 0 0 
8.65625 0 0 
8.6875 0 0 
8.75 0 0 
8.71875 0 0 
8.75 0 0 
8.8125 0 0 
8.78125 0 0 
8.8125 0 0 
8.875 0 0 
8.84375 0 0 
8.875 0 0 
8.9375 0 0 
8.90625 0 0 
8.9375 0 0 
9 0 0 
8.96875 0 0 
9 0 0 
9.0625 0 0 
9.03125 0 0 
9.0625 0 0 
9.125 0 0 
9.09375 0 0 
9.125 0 0 
9.1875 0 0 
9.15625 0 0 
9.1875 0 0 
9.25 0 0 
9.21875 0 0 
9.25 0 0 
9.3125 0 0 
9.28125 0 0 
9.3125 0 0 
9.375 0 0 
9.34375 0 0 
9.375 0 0 
9.4375 0 0 
9.40625 0 0 
9.4375 0 0 
9.5 0 0 
9.46875 0 0 
9.5 0 0 
9.5625 0 0 
9.53125 0 0 
9.5625 0 0 
9.625 0 0 
9.59375 0 0 
9.625 0 0 
9.6875 0 0 
9.65625 0 0 
9.6875 0 0 
9.75 0 0 
9.71875 0 0 
9.75 0 0 
9.8125 0 0 
9.78125 0 0 
9.8125 0 0 
9.875 0 0 
9.84375 0 0 
9.875 0 0 
9.9375 0 0 
9.90625 0 0 
9.9375 0 0 
10 0 0 
9.96875 0 0 

CELLS 162 644
1 0
1 1
3 2 3 4
3 5 6 7
3 8 9 10
3 11 12 13
3 14 15 16
3 17 18 19
3 20 21 22
3 23 24 25
3 26 27 28
3 29 30 31
3 32 33 34
3 35 36 37
3 38 39 40
3 41 42 43
3 44 45 46
3 47 48 49
3 50 51 52
3 53 54 55
3 56 57 58
3 59 60 61
3 62 63 64
3 65 66 67
3 68 69 70
3 71 72 73
3 74 75 76
3 77 78 79
3 80 81 82
3 83 84 85
3 86 87 88
3 89 90 91
3 92 93 94
3 95 96 97
3 98 99 100
3 101 102 103
3 104 105 106
3 107 108 109
3 110 111 112
3 113 114 115
3 116 117 118
3 119 120 121
3 122 123 124
3 125 126 127
3 128 129 130
3 131 132 133
3 134 135 136
3 137 138 139
3 140 141 142
3 143 144 145
3 146 147 148
3 149 150 151
3 152 153 154
3 155 156 157
3 158 159 160
3 161 162 163
3 164 165 166
3 167 168 169
3 170 171 172
3 173 174 175
3 176 177 178
3 179 180 181
3 182 183 184
3 185 186 187
3 188 189 190
3 191 192 193
3 194 195 196
3 197 198 199
3 200 201 202
3 203 204 205
3 206 207 208
3 209 210 211
3 212 213 214
3 215 216 217
3 218 219 220
3 221 222 223
3 224 225 226
3 227 228 229
3 230 231 232
3 233 234 235
3 236 237 238
3 239 240 241
3 242 243 244
3 245 246 247
3 248 249 250
3 251 252 253
3 254 255 256
3 257 258 259
3 260 261 262
3 263 264 265
3 266 267 268
3 269 270 271
3 272 273 274
3 275 276 277
3 278 279 280
3 281 282 283
3 284 285 286
3 287 288 289
3 290 291 292
3 293 294 295
3 296 297 298
3 299 300 301
3 302 303 304
3 305 306 307
3 308 309 310
3 311 312 313
3 314 315 316
3 317 318 319
3 320 321 322
3 323 324 325
3 326 327 328
3 329 330 331
3 332 333 334
3 335 336 337
3 338 339 340
3 341 342 343
3 344 345 346
3 347 348 349
3 350 351 352
3 353 354 355
3 356 357 358
3 359 360 361
3 362 363 364
3 365 366 367
3 368 369 370
3 371 372 373
3 374 375 376
3 377 378 379
3 380 381 382
3 383 384 385
3 386 387 388
3 389 390 391
3 392 393 394
3 395 396 397
3 398 399 400
3 401 402 403
3 404 405 406
3 407 408 409
3 410 411 412
3 413 414 415
3 416 417 418
3 419 420 421
3 422 423 424
3 425 426 427
3 428 429 430
3 431 432 433
3 434 435 436
3 437 438 439
3 440 441 442
3 443 444 445
3 446 447 448
3 449 450 451
3 452 453 454
3 455 456 457
3 458 459 460
3 461 462 463
3 464 465 466
3 467 468 469
3 470 471 472
3 473 474 475
3 476 477 478
3 479 480 481

CELL_TYPES 162
1
1
21
21
21
21
21
21
21
21
21
21
21
21
21
21
21
21
21
21
21
21
21
21
21
21
21
21
21
21
21
21
21
21
21
21
21
21
21
21
21
21
21
21
21
21
21
21
21
21
21
21
21
21
21
21
21
21
21
21
21
21
21
21
21
21
21
21
21
21
21
21
21
21
21
21
21
21
21
21
21
21
21
21
21
21
21
21
21
21
21
21
21
21
21
21
21
21
21
21
21
21
21
21
21
21
21
21
21
21
21
21
21
21
21
21
21
21
21
21
21
21
21
21
21
21
21
21
21
21
21
21
21
21
21
21
21
21
21
21
21
21
21
21
21
21
21
21
21
21
21
21
21
21
21
21
21
21
21
21
21
21

CELL_DATA 162
FIELD FieldData 1
material 1 162 int
3
3
1
1
1
1
1
1
1
1
1
1
1
1
1
1
1
1
1
1
1
1
1
1
1
1
1
1
1
1
1
1
1
1
1
1
1
1
1
1
1
1
1
1
1
1
1
1
1
1
1
1
1
1
1
1
1
1
1
1
1
1
1
1
1
1
1
1
1
1
1
1
1
1
1
1
1
1
1
1
1
1
1
1
1
1
1
1
1
1
1
1
1
1
1
1
1
1
1
1
1
1
1
1
1
1
1
1
1
1
1
1
1
1
1
1
1
1
1
1
1
1
1
1
1
1
1
1
1
1
1
1
1
1
1
1
1
1
1
1
1
1
1
1
1
1
1
1
1
1
1
1
1
1
1
1
1
1
1
1
1
1
FIELD FieldData 1
elindex 1 162 int
0
1
2
3
4
5
6
7
8
9
10
11
12
13
14
15
16
17
18
19
20
21
22
23
24
25
26
27
28
29
30
31
32
33
34
35
36
37
38
39
40
41
42
43
44
45
46
47
48
49
50
51
52
53
54
55
56
57
58
59
60
61
62
63
64
65
66
67
68
69
70
71
72
73
74
75
76
77
78
79
80
81
82
83
84
85
86
87
88
89
90
91
92
93
94
95
96
97
98
99
100
101
102
103
104
105
106
107
108
109
110
111
112
113
114
115
116
117
118
119
120
121
122
123
124
125
126
127
128
129
130
131
132
133
134
135
136
137
138
139
140
141
142
143
144
145
146
147
148
149
150
151
152
153
154
155
156
157
158
159
160
161
POINT_DATA 482
SCALARS Solution float
LOOKUP_TABLE default
-3e-11 
-3e-11 
-3e-11 
-1.86328 
-0.931641 
-1.86328 
-3.70313 
-2.7832 
-3.70313 
-5.51953 
-4.61133 
-5.51953 
-7.3125 
-6.41602 
-7.3125 
-9.08203 
-8.19727 
-9.08203 
-10.8281 
-9.95508 
-10.8281 
-12.5508 
-11.6895 
-12.5508 
-14.25 
-13.4004 
-14.25 
-15.9258 
-15.0879 
-15.9258 
-17.5781 
-16.752 
-17.5781 
-19.207 
-18.3926 
-19.207 
-20.8125 
-20.0098 
-20.8125 
-22.3945 
-21.6035 
-22.3945 
-23.9531 
-23.1738 
-23.9531 
-25.4883 
-24.7207 
-25.4883 
-27 
-26.2441 
-27 
-28.4883 
-27.7441 
-28.4883 
-29.9531 
-29.2207 
-29.9531 
-31.3945 
-30.6738 
-31.3945 
-32.8125 
-32.1035 
-32.8125 
-34.207 
-33.5098 
-34.207 
-35.5781 
-34.8926 
-35.5781 
-36.9258 
-36.252 
-36.9258 
-38.25 
-37.5879 
-38.25 
-39.5508 
-38.9004 
-39.5508 
-40.8281 
-40.1895 
-40.8281 
-42.082 
-41.4551 
-42.082 
-43.3125 
-42.6973 
-43.3125 
-44.5195 
-43.916 
-44.5195 
-45.7031 
-45.1113 
-45.7031 
-46.8633 
-46.2832 
-46.8633 
-48 
-47.4316 
-48 
-49.1133 
-48.5566 
-49.1133 
-50.2031 
-49.6582 
-50.2031 
-51.2695 
-50.7363 
-51.2695 
-52.3125 
-51.791 
-52.3125 
-53.332 
-52.8223 
-53.332 
-54.3281 
-53.8301 
-54.3281 
-55.3008 
-54.8145 
-55.3008 
-56.25 
-55.7754 
-56.25 
-57.1758 
-56.7129 
-57.1758 
-58.0781 
-57.627 
-58.0781 
-58.957 
-58.5176 
-58.957 
-59.8125 
-59.3848 
-59.8125 
-60.6445 
-60.2285 
-60.6445 
-61.4531 
-61.0488 
-61.4531 
-62.2383 
-61.8457 
-62.2383 
-63 
-62.6191 
-63 
-63.7383 
-63.3691 
-63.7383 
-64.4531 
-64.0957 
-64.4531 
-65.1445 
-64.7988 
-65.1445 
-65.8125 
-65.4785 
-65.8125 
-66.457 
-66.1348 
-66.457 
-67.0781 
-66.7676 
-67.0781 
-67.6758 
-67.377 
-67.6758 
-68.25 
-67.9629 
-68.25 
-68.8008 
-68.5254 
-68.8008 
-69.3281 
-69.0645 
-69.3281 
-69.832 
-69.5801 
-69.832 
-70.3125 
-70.0723 
-70.3125 
-70.7695 
-70.541 
-70.7695 
-71.2031 
-70.9863 
-71.2031 
-71.6133 
-71.4082 
-71.6133 
-72 
-71.8066 
-72 
-72.3633 
-72.1816 
-72.3633 
-72.7031 
-72.5332 
-72.7031 
-73.0195 
-72.8613 
-73.0195 
-73.3125 
-73.166 
-73.3125 
-73.582 
-73.4473 
-73.582 
-73.8281 
-73.7051 
-73.8281 
-74.0508 
-73.9395 
-74.0508 
-74.25 
-74.1504 
-74.25 
-74.4258 
-74.3379 
-74.4258 
-74.5781 
-74.502 
-74.5781 
-74.707 
-74.6426 
-74.707 
-74.8125 
-74.7598 
-74.8125 
-74.8945 
-74.8535 
-74.8945 
-74.9531 
-74.9238 
-74.9531 
-74.9883 
-74.9707 
-74.9883 
-75 
-74.9941 
-75 
-74.9883 
-74.9941 
-74.9883 
-74.9531 
-74.9707 
-74.9531 
-74.8945 
-74.9238 
-74.8945 
-74.8125 
-74.8535 
-74.8125 
-74.707 
-74.7598 
-74.707 
-74.5781 
-74.6426 
-74.5781 
-74.4258 
-74.502 
-74.4258 
-74.25 
-74.3379 
-74.25 
-74.0508 
-74.1504 
-74.0508 
-73.8281 
-73.9395 
-73.8281 
-73.582 
-73.7051 
-73.582 
-73.3125 
-73.4473 
-73.3125 
-73.0195 
-73.166 
-73.0195 
-72.7031 
-72.8613 
-72.7031 
-72.3633 
-72.5332 
-72.3633 
-72 
-72.1816 
-72 
-71.6133 
-71.8066 
-71.6133 
-71.2031 
-71.4082 
-71.2031 
-70.7695 
-70.9863 
-70.7695 
-70.3125 
-70.541 
-70.3125 
-69.832 
-70.0723 
-69.832 
-69.3281 
-69.5801 
-69.3281 
-68.8008 
-69.0645 
-68.8008 
-68.25 
-68.5254 
-68.25 
-67.6758 
-67.9629 
-67.6758 
-67.0781 
-67.377 
-67.0781 
-66.457 
-66.7676 
-66.457 
-65.8125 
-66.1348 
-65.8125 
-65.1445 
-65.4785 
-65.1445 
-64.4531 
-64.7988 
-64.4531 
-63.7383 
-64.0957 
-63.7383 
-63 
-63.3691 
-63 
-62.2383 
-62.6191 
-62.2383 
-61.4531 
-61.8457 
-61.4531 
-60.6445 
-61.0488 
-60.6445 
-59.8125 
-60.2285 
-59.8125 
-58.957 
-59.3848 
-58.957 
-58.0781 
-58.5176 
-58.0781 
-57.1758 
-57.627 
-57.1758 
-56.25 
-56.7129 
-56.25 
-55.3008 
-55.7754 
-55.3008 
-54.3281 
-54.8145 
-54.3281 
-53.332 
-53.8301 
-53.332 
-52.3125 
-52.8223 
-52.3125 
-51.2695 
-51.791 
-51.2695 
-50.2031 
-50.7363 
-50.2031 
-49.1133 
-49.6582 
-49.1133 
-48 
-48.5566 
-48 
-46.8633 
-47.4316 
-46.8633 
-45.7031 
-46.2832 
-45.7031 
-44.5195 
-45.1113 
-44.5195 
-43.3125 
-43.916 
-43.3125 
-42.082 
-42.6973 
-42.082 
-40.8281 
-41.4551 
-40.8281 
-39.5508 
-40.1895 
-39.5508 
-38.25 
-38.9004 
-38.25 
-36.9258 
-37.5879 
-36.9258 
-35.5781 
-36.252 
-35.5781 
-34.207 
-34.8926 
-34.207 
-32.8125 
-33.5098 
-32.8125 
-31.3945 
-32.1035 
-31.3945 
-29.9531 
-30.6738 
-29.9531 
-28.4883 
-29.2207 
-28.4883 
-27 
-27.7441 
-27 
-25.4883 
-26.2441 
-25.4883 
-23.9531 
-24.7207 
-23.9531 
-22.3945 
-23.1738 
-22.3945 
-20.8125 
-21.6035 
-20.8125 
-19.207 
-20.0098 
-19.207 
-17.5781 
-18.3926 
-17.5781 
-15.9258 
-16.752 
-15.9258 
-14.25 
-15.0879 
-14.25 
-12.5508 
-13.4004 
-12.5508 
-10.8281 
-11.6895 
-10.8281 
-9.08203 
-9.95508 
-9.08203 
-7.3125 
-8.19727 
-7.3125 
-5.51953 
-6.41602 
-5.51953 
-3.70313 
-4.61133 
-3.70313 
-1.86328 
-2.7832 
-1.86328 
-3e-11 
-0.931641 
VECTORS GradSolution float
0 0 0 
0 0 0 
-29.8125 -0 -0 
-29.8125 -0 -0 
-29.8125 -0 -0 
-29.4375 -0 -0 
-29.4375 -0 -0 
-29.4375 -0 -0 
-29.0625 -0 -0 
-29.0625 -0 -0 
-29.0625 -0 -0 
-28.6875 -0 -0 
-28.6875 -0 -0 
-28.6875 -0 -0 
-28.3125 -0 -0 
-28.3125 -0 -0 
-28.3125 -0 -0 
-27.9375 -0 -0 
-27.9375 -0 -0 
-27.9375 -0 -0 
-27.5625 -0 -0 
-27.5625 -0 -0 
-27.5625 -0 -0 
-27.1875 -0 -0 
-27.1875 -0 -0 
-27.1875 -0 -0 
-26.8125 -0 -0 
-26.8125 -0 -0 
-26.8125 -0 -0 
-26.4375 -0 -0 
-26.4375 -0 -0 
-26.4375 -0 -0 
-26.0625 -0 -0 
-26.0625 -0 -0 
-26.0625 -0 -0 
-25.6875 -0 -0 
-25.6875 -0 -0 
-25.6875 -0 -0 
-25.3125 -0 -0 
-25.3125 -0 -0 
-25.3125 -0 -0 
-24.9375 -0 -0 
-24.9375 -0 -0 
-24.9375 -0 -0 
-24.5625 -0 -0 
-24.5625 -0 -0 
-24.5625 -0 -0 
-24.1875 -0 -0 
-24.1875 -0 -0 
-24.1875 -0 -0 
-23.8125 -0 -0 
-23.8125 -0 -0 
-23.8125 -0 -0 
-23.4375 -0 -0 
-23.4375 -0 -0 
-23.4375 -0 -0 
-23.0625 -0 -0 
-23.0625 -0 -0 
-23.0625 -0 -0 
-22.6875 -0 -0 
-22.6875 -0 -0 
-22.6875 -0 -0 
-22.3125 -0 -0 
-22.3125 -0 -0 
-22.3125 -0 -0 
-21.9375 -0 -0 
-21.9375 -0 -0 
-21.9375 -0 -0 
-21.5625 -0 -0 
-21.5625 -0 -0 
-21.5625 -0 -0 
-21.1875 -0 -0 
-21.1875 -0 -0 
-21.1875 -0 -0 
-20.8125 -0 -0 
-20.8125 -0 -0 
-20.8125 -0 -0 
-20.4375 -0 -0 
-20.4375 -0 -0 
-20.4375 -0 -0 
-20.0625 -0 -0 
-20.0625 -0 -0 
-20.0625 -0 -0 
-19.6875 -0 -0 
-19.6875 -0 -0 
-19.6875 -0 -0 
-19.3125 -0 -0 
-19.3125 -0 -0 
-19.3125 -0 -0 
-18.9375 -0 -0 
-18.9375 -0 -0 
-18.9375 -0 -0 
-18.5625 -0 -0 
-18.5625 -0 -0 
-18.5625 -0 -0 
-18.1875 -0 -0 
-18.1875 -0 -0 
-18.1875 -0 -0 
-17.8125 -0 -0 
-17.8125 -0 -0 
-17.8125 -0 -0 
-17.4375 -0 -0 
-17.4375 -0 -0 
-17.4375 -0 -0 
-17.0625 -0 -0 
-17.0625 -0 -0 
-17.0625 -0 -0 
-16.6875 -0 -0 
-16.6875 -0 -0 
-16.6875 -0 -0 
-16.3125 -0 -0 
-16.3125 -0 -0 
-16.3125 -0 -0 
-15.9375 -0 -0 
-15.9375 -0 -0 
-15.9375 -0 -0 
-15.5625 -0 -0 
-15.5625 -0 -0 
-15.5625 -0 -0 
-15.1875 -0 -0 
-15.1875 -0 -0 
-15.1875 -0 -0 
-14.8125 -0 -0 
-14.8125 -0 -0 
-14.8125 -0 -0 
-14.4375 -0 -0 
-14.4375 -0 -0 
-14.4375 -0 -0 
-14.0625 -0 -0 
-14.0625 -0 -0 
-14.0625 -0 -0 
-13.6875 -0 -0 
-13.6875 -0 -0 
-13.6875 -0 -0 
-13.3125 -0 -0 
-13.3125 -0 -0 
-13.3125 -0 -0 
-12.9375 -0 -0 
-12.9375 -0 -0 
-12.9375 -0 -0 
-12.5625 -0 -0 
-12.5625 -0 -0 
-12.5625 -0 -0 
-12.1875 -0 -0 
-12.1875 -0 -0 
-12.1875 -0 -0 
-11.8125 -0 -0 
-11.8125 -0 -0 
-11.8125 -0 -0 
-11.4375 -0 -0 
-11.4375 -0 -0 
-11.4375 -0 -0 
-11.0625 -0 -0 
-11.0625 -0 -0 
-11.0625 -0 -0 
-10.6875 -0 -0 
-10.6875 -0 -0 
-10.6875 -0 -0 
-10.3125 -0 -0 
-10.3125 -0 -0 
-10.3125 -0 -0 
-9.9375 -0 -0 
-9.9375 -0 -0 
-9.9375 -0 -0 
-9.5625 -0 -0 
-9.5625 -0 -0 
-9.5625 -0 -0 
-9.1875 -0 -0 
-9.1875 -0 -0 
-9.1875 -0 -0 
-8.8125 -0 -0 
-8.8125 -0 -0 
-8.8125 -0 -0 
-8.4375 -0 -0 
-8.4375 -0 -0 
-8.4375 -0 -0 
-8.0625 -0 -0 
-8.0625 -0 -0 
-8.0625 -0 -0 
-7.6875 -0 -0 
-7.6875 -0 -0 
-7.6875 -0 -0 
-7.3125 -0 -0 
-7.3125 -0 -0 
-7.3125 -0 -0 
-6.9375 -0 -0 
-6.9375 -0 -0 
-6.9375 -0 -0 
-6.5625 -0 -0 
-6.5625 -0 -0 
-6.5625 -0 -0 
-6.1875 -0 -0 
-6.1875 -0 -0 
-6.1875 -0 -0 
-5.8125 -0 -0 
-5.8125 -0 -0 
-5.8125 -0 -0 
-5.4375 -0 -0 
-5.4375 -0 -0 
-5.4375 -0 -0 
-5.0625 -0 -0 
-5.0625 -0 -0 
-5.0625 -0 -0 
-4.6875 -0 -0 
-4.6875 -0 -0 
-4.6875 -0 -0 
-4.3125 -0 -0 
-4.3125 -0 -0 
-4.3125 -0 -0 
-3.9375 -0 -0 
-3.9375 -0 -0 
-3.9375 -0 -0 
-3.5625 -0 -0 
-3.5625 -0 -0 
-3.5625 -0 -0 
-3.1875 -0 -0 
-3.1875 -0 -0 
-3.1875 -0 -0 
-2.8125 -0 -0 
-2.8125 -0 -0 
-2.8125 -0 -0 
-2.4375 -0 -0 
-2.4375 -0 -0 
-2.4375 -0 -0 
-2.0625 -0 -0 
-2.0625 -0 -0 
-2.0625 -0 -0 
-1.6875 -0 -0 
-1.6875 -0 -0 
-1.6875 -0 -0 
-1.3125 -0 -0 
-1.3125 -0 -0 
-1.3125 -0 -0 
-0.9375 -0 -0 
-0.9375 -0 -0 
-0.9375 -0 -0 
-0.5625 -0 -0 
-0.5625 -0 -0 
-0.5625 -0 -0 
-0.1875 -0 -0 
-0.1875 -0 -0 
-0.1875 -0 -0 
0.1875 0 0 
0.1875 0 0 
0.1875 0 0 
0.5625 0 0 
0.5625 0 0 
0.5625 0 0 
0.9375 0 0 
0.9375 0 0 
0.9375 0 0 
1.3125 0 0 
1.3125 0 0 
1.3125 0 0 
1.6875 0 0 
1.6875 0 0 
1.6875 0 0 
2.0625 0 0 
2.0625 0 0 
2.0625 0 0 
2.4375 0 0 
2.4375 0 0 
2.4375 0 0 
2.8125 0 0 
2.8125 0 0 
2.8125 0 0 
3.1875 0 0 
3.1875 0 0 
3.1875 0 0 
3.5625 0 0 
3.5625 0 0 
3.5625 0 0 
3.9375 0 0 
3.9375 0 0 
3.9375 0 0 
4.3125 0 0 
4.3125 0 0 
4.3125 0 0 
4.6875 0 0 
4.6875 0 0 
4.6875 0 0 
5.0625 0 0 
5.0625 0 0 
5.0625 0 0 
5.4375 0 0 
5.4375 0 0 
5.4375 0 0 
5.8125 0 0 
5.8125 0 0 
5.8125 0 0 
6.1875 0 0 
6.1875 0 0 
6.1875 0 0 
6.5625 0 0 
6.5625 0 0 
6.5625 0 0 
6.9375 0 0 
6.9375 0 0 
6.9375 0 0 
7.3125 0 0 
7.3125 0 0 
7.3125 0 0 
7.6875 0 0 
7.6875 0 0 
7.6875 0 0 
8.0625 0 0 
8.0625 0 0 
8.0625 0 0 
8.4375 0 0 
8.4375 0 0 
8.4375 0 0 
8.8125 0 0 
8.8125 0 0 
8.8125 0 0 
9.1875 0 0 
9.1875 0 0 
9.1875 0 0 
9.5625 0 0 
9.5625 0 0 
9.5625 0 0 
9.9375 0 0 
9.9375 0 0 
9.9375 0 0 
10.3125 0 0 
10.3125 0 0 
10.3125 0 0 
10.6875 0 0 
10.6875 0 0 
10.6875 0 0 
11.0625 0 0 
11.0625 0 0 
11.0625 0 0 
11.4375 0 0 
11.4375 0 0 
11.4375 0 0 
11.8125 0 0 
11.8125 0 0 
11.8125 0 0 
12.1875 0 0 
12.1875 0 0 
12.1875 0 0 
12.5625 0 0 
12.5625 0 0 
12.5625 0 0 
12.9375 0 0 
12.9375 0 0 
12.9375 0 0 
13.3125 0 0 
13.3125 0 0 
13.3125 0 0 
13.6875 0 0 
13.6875 0 0 
13.6875 0 0 
14.0625 0 0 
14.0625 0 0 
14.0625 0 0 
14.4375 0 0 
14.4375 0 0 
14.4375 0 0 
14.8125 0 0 
14.8125 0 0 
14.8125 0 0 
15.1875 0 0 
15.1875 0 0 
15.1875 0 0 
15.5625 0 0 
15.5625 0 0 
15.5625 0 0 
15.9375 0 0 
15.9375 0 0 
15.9375 0 0 
16.3125 0 0 
16.3125 0 0 
16.3125 0 0 
16.6875 0 0 
16.6875 0 0 
16.6875 0 0 
17.0625 0 0 
17.0625 0 0 
17.0625 0 0 
17.4375 0 0 
17.4375 0 0 
17.4375 0 0 
17.8125 0 0 
17.8125 0 0 
17.8125 0 0 
18.1875 0 0 
18.1875 0 0 
18.1875 0 0 
18.5625 0 0 
18.5625 0 0 
18.5625 0 0 
18.9375 0 0 
18.9375 0 0 
18.9375 0 0 
19.3125 0 0 
19.3125 0 0 
19.3125 0 0 
19.6875 0 0 
19.6875 0 0 
19.6875 0 0 
20.0625 0 0 
20.0625 0 0 
20.0625 0 0 
20.4375 0 0 
20.4375 0 0 
20.4375 0 0 
20.8125 0 0 
20.8125 0 0 
20.8125 0 0 
21.1875 0 0 
21.1875 0 0 
21.1875 0 0 
21.5625 0 0 
21.5625 0 0 
21.5625 0 0 
21.9375 0 0 
21.9375 0 0 
21.9375 0 0 
22.3125 0 0 
22.3125 0 0 
22.3125 0 0 
22.6875 0 0 
22.6875 0 0 
22.6875 0 0 
23.0625 0 0 
23.0625 0 0 
23.0625 0 0 
23.4375 0 0 
23.4375 0 0 
23.4375 0 0 
23.8125 0 0 
23.8125 0 0 
23.8125 0 0 
24.1875 0 0 
24.1875 0 0 
24.1875 0 0 
24.5625 0 0 
24.5625 0 0 
24.5625 0 0 
24.9375 0 0 
24.9375 0 0 
24.9375 0 0 
25.3125 0 0 
25.3125 0 0 
25.3125 0 0 
25.6875 0 0 
25.6875 0 0 
25.6875 0 0 
26.0625 0 0 
26.0625 0 0 
26.0625 0 0 
26.4375 0 0 
26.4375 0 0 
26.4375 0 0 
26.8125 0 0 
26.8125 0 0 
26.8125 0 0 
27.1875 0 0 
27.1875 0 0 
27.1875 0 0 
27.5625 0 0 
27.5625 0 0 
27.5625 0 0 
27.9375 0 0 
27.9375 0 0 
27.9375 0 0 
28.3125 0 0 
28.3125 0 0 
28.3125 0 0 
28.6875 0 0 
28.6875 0 0 
28.6875 0 0 
29.0625 0 0 
29.0625 0 0 
29.0625 0 0 
29.4375 0 0 
29.4375 0 0 
29.4375 0 0 
29.8125 0 0 
29.8125 0 0 
29.8125 0 0 
