# vtk DataFile Version 3.0
TPZGeoMesh VTK Visualization
ASCII

DATASET UNSTRUCTURED_GRID
POINTS 242 float
0 0 0 
10 0 0 
0 0 0 
0.125 0 0 
0.0625 0 0 
0.125 0 0 
0.25 0 0 
0.1875 0 0 
0.25 0 0 
0.375 0 0 
0.3125 0 0 
0.375 0 0 
0.5 0 0 
0.4375 0 0 
0.5 0 0 
0.625 0 0 
0.5625 0 0 
0.625 0 0 
0.75 0 0 
0.6875 0 0 
0.75 0 0 
0.875 0 0 
0.8125 0 0 
0.875 0 0 
1 0 0 
0.9375 0 0 
1 0 0 
1.125 0 0 
1.0625 0 0 
1.125 0 0 
1.25 0 0 
1.1875 0 0 
1.25 0 0 
1.375 0 0 
1.3125 0 0 
1.375 0 0 
1.5 0 0 
1.4375 0 0 
1.5 0 0 
1.625 0 0 
1.5625 0 0 
1.625 0 0 
1.75 0 0 
1.6875 0 0 
1.75 0 0 
1.875 0 0 
1.8125 0 0 
1.875 0 0 
2 0 0 
1.9375 0 0 
2 0 0 
2.125 0 0 
2.0625 0 0 
2.125 0 0 
2.25 0 0 
2.1875 0 0 
2.25 0 0 
2.375 0 0 
2.3125 0 0 
2.375 0 0 
2.5 0 0 
2.4375 0 0 
2.5 0 0 
2.625 0 0 
2.5625 0 0 
2.625 0 0 
2.75 0 0 
2.6875 0 0 
2.75 0 0 
2.875 0 0 
2.8125 0 0 
2.875 0 0 
3 0 0 
2.9375 0 0 
3 0 0 
3.125 0 0 
3.0625 0 0 
3.125 0 0 
3.25 0 0 
3.1875 0 0 
3.25 0 0 
3.375 0 0 
3.3125 0 0 
3.375 0 0 
3.5 0 0 
3.4375 0 0 
3.5 0 0 
3.625 0 0 
3.5625 0 0 
3.625 0 0 
3.75 0 0 
3.6875 0 0 
3.75 0 0 
3.875 0 0 
3.8125 0 0 
3.875 0 0 
4 0 0 
3.9375 0 0 
4 0 0 
4.125 0 0 
4.0625 0 0 
4.125 0 0 
4.25 0 0 
4.1875 0 0 
4.25 0 0 
4.375 0 0 
4.3125 0 0 
4.375 0 0 
4.5 0 0 
4.4375 0 0 
4.5 0 0 
4.625 0 0 
4.5625 0 0 
4.625 0 0 
4.75 0 0 
4.6875 0 0 
4.75 0 0 
4.875 0 0 
4.8125 0 0 
4.875 0 0 
5 0 0 
4.9375 0 0 
5 0 0 
5.125 0 0 
5.0625 0 0 
5.125 0 0 
5.25 0 0 
5.1875 0 0 
5.25 0 0 
5.375 0 0 
5.3125 0 0 
5.375 0 0 
5.5 0 0 
5.4375 0 0 
5.5 0 0 
5.625 0 0 
5.5625 0 0 
5.625 0 0 
5.75 0 0 
5.6875 0 0 
5.75 0 0 
5.875 0 0 
5.8125 0 0 
5.875 0 0 
6 0 0 
5.9375 0 0 
6 0 0 
6.125 0 0 
6.0625 0 0 
6.125 0 0 
6.25 0 0 
6.1875 0 0 
6.25 0 0 
6.375 0 0 
6.3125 0 0 
6.375 0 0 
6.5 0 0 
6.4375 0 0 
6.5 0 0 
6.625 0 0 
6.5625 0 0 
6.625 0 0 
6.75 0 0 
6.6875 0 0 
6.75 0 0 
6.875 0 0 
6.8125 0 0 
6.875 0 0 
7 0 0 
6.9375 0 0 
7 0 0 
7.125 0 0 
7.0625 0 0 
7.125 0 0 
7.25 0 0 
7.1875 0 0 
7.25 0 0 
7.375 0 0 
7.3125 0 0 
7.375 0 0 
7.5 0 0 
7.4375 0 0 
7.5 0 0 
7.625 0 0 
7.5625 0 0 
7.625 0 0 
7.75 0 0 
7.6875 0 0 
7.75 0 0 
7.875 0 0 
7.8125 0 0 
7.875 0 0 
8 0 0 
7.9375 0 0 
8 0 0 
8.125 0 0 
8.0625 0 0 
8.125 0 0 
8.25 0 0 
8.1875 0 0 
8.25 0 0 
8.375 0 0 
8.3125 0 0 
8.375 0 0 
8.5 0 0 
8.4375 0 0 
8.5 0 0 
8.625 0 0 
8.5625 0 0 
8.625 0 0 
8.75 0 0 
8.6875 0 0 
8.75 0 0 
8.875 0 0 
8.8125 0 0 
8.875 0 0 
9 0 0 
8.9375 0 0 
9 0 0 
9.125 0 0 
9.0625 0 0 
9.125 0 0 
9.25 0 0 
9.1875 0 0 
9.25 0 0 
9.375 0 0 
9.3125 0 0 
9.375 0 0 
9.5 0 0 
9.4375 0 0 
9.5 0 0 
9.625 0 0 
9.5625 0 0 
9.625 0 0 
9.75 0 0 
9.6875 0 0 
9.75 0 0 
9.875 0 0 
9.8125 0 0 
9.875 0 0 
10 0 0 
9.9375 0 0 

CELLS 82 324
1 0
1 1
3 2 3 4
3 5 6 7
3 8 9 10
3 11 12 13
3 14 15 16
3 17 18 19
3 20 21 22
3 23 24 25
3 26 27 28
3 29 30 31
3 32 33 34
3 35 36 37
3 38 39 40
3 41 42 43
3 44 45 46
3 47 48 49
3 50 51 52
3 53 54 55
3 56 57 58
3 59 60 61
3 62 63 64
3 65 66 67
3 68 69 70
3 71 72 73
3 74 75 76
3 77 78 79
3 80 81 82
3 83 84 85
3 86 87 88
3 89 90 91
3 92 93 94
3 95 96 97
3 98 99 100
3 101 102 103
3 104 105 106
3 107 108 109
3 110 111 112
3 113 114 115
3 116 117 118
3 119 120 121
3 122 123 124
3 125 126 127
3 128 129 130
3 131 132 133
3 134 135 136
3 137 138 139
3 140 141 142
3 143 144 145
3 146 147 148
3 149 150 151
3 152 153 154
3 155 156 157
3 158 159 160
3 161 162 163
3 164 165 166
3 167 168 169
3 170 171 172
3 173 174 175
3 176 177 178
3 179 180 181
3 182 183 184
3 185 186 187
3 188 189 190
3 191 192 193
3 194 195 196
3 197 198 199
3 200 201 202
3 203 204 205
3 206 207 208
3 209 210 211
3 212 213 214
3 215 216 217
3 218 219 220
3 221 222 223
3 224 225 226
3 227 228 229
3 230 231 232
3 233 234 235
3 236 237 238
3 239 240 241

CELL_TYPES 82
1
1
21
21
21
21
21
21
21
21
21
21
21
21
21
21
21
21
21
21
21
21
21
21
21
21
21
21
21
21
21
21
21
21
21
21
21
21
21
21
21
21
21
21
21
21
21
21
21
21
21
21
21
21
21
21
21
21
21
21
21
21
21
21
21
21
21
21
21
21
21
21
21
21
21
21
21
21
21
21
21
21

CELL_DATA 82
FIELD FieldData 1
material 1 82 int
3
3
1
1
1
1
1
1
1
1
1
1
1
1
1
1
1
1
1
1
1
1
1
1
1
1
1
1
1
1
1
1
1
1
1
1
1
1
1
1
1
1
1
1
1
1
1
1
1
1
1
1
1
1
1
1
1
1
1
1
1
1
1
1
1
1
1
1
1
1
1
1
1
1
1
1
1
1
1
1
1
1
FIELD FieldData 1
elindex 1 82 int
0
1
2
3
4
5
6
7
8
9
10
11
12
13
14
15
16
17
18
19
20
21
22
23
24
25
26
27
28
29
30
31
32
33
34
35
36
37
38
39
40
41
42
43
44
45
46
47
48
49
50
51
52
53
54
55
56
57
58
59
60
61
62
63
64
65
66
67
68
69
70
71
72
73
74
75
76
77
78
79
80
81
POINT_DATA 242
SCALARS Solution float
LOOKUP_TABLE default
-3e-11 
-3e-11 
-3e-11 
-3.70313 
-1.85156 
-3.70313 
-7.3125 
-5.50781 
-7.3125 
-10.8281 
-9.07031 
-10.8281 
-14.25 
-12.5391 
-14.25 
-17.5781 
-15.9141 
-17.5781 
-20.8125 
-19.1953 
-20.8125 
-23.9531 
-22.3828 
-23.9531 
-27 
-25.4766 
-27 
-29.9531 
-28.4766 
-29.9531 
-32.8125 
-31.3828 
-32.8125 
-35.5781 
-34.1953 
-35.5781 
-38.25 
-36.9141 
-38.25 
-40.8281 
-39.5391 
-40.8281 
-43.3125 
-42.0703 
-43.3125 
-45.7031 
-44.5078 
-45.7031 
-48 
-46.8516 
-48 
-50.2031 
-49.1016 
-50.2031 
-52.3125 
-51.2578 
-52.3125 
-54.3281 
-53.3203 
-54.3281 
-56.25 
-55.2891 
-56.25 
-58.0781 
-57.1641 
-58.0781 
-59.8125 
-58.9453 
-59.8125 
-61.4531 
-60.6328 
-61.4531 
-63 
-62.2266 
-63 
-64.4531 
-63.7266 
-64.4531 
-65.8125 
-65.1328 
-65.8125 
-67.0781 
-66.4453 
-67.0781 
-68.25 
-67.6641 
-68.25 
-69.3281 
-68.7891 
-69.3281 
-70.3125 
-69.8203 
-70.3125 
-71.2031 
-70.7578 
-71.2031 
-72 
-71.6016 
-72 
-72.7031 
-72.3516 
-72.7031 
-73.3125 
-73.0078 
-73.3125 
-73.8281 
-73.5703 
-73.8281 
-74.25 
-74.0391 
-74.25 
-74.5781 
-74.4141 
-74.5781 
-74.8125 
-74.6953 
-74.8125 
-74.9531 
-74.8828 
-74.9531 
-75 
-74.9766 
-75 
-74.9531 
-74.9766 
-74.9531 
-74.8125 
-74.8828 
-74.8125 
-74.5781 
-74.6953 
-74.5781 
-74.25 
-74.4141 
-74.25 
-73.8281 
-74.0391 
-73.8281 
-73.3125 
-73.5703 
-73.3125 
-72.7031 
-73.0078 
-72.7031 
-72 
-72.3516 
-72 
-71.2031 
-71.6016 
-71.2031 
-70.3125 
-70.7578 
-70.3125 
-69.3281 
-69.8203 
-69.3281 
-68.25 
-68.7891 
-68.25 
-67.0781 
-67.6641 
-67.0781 
-65.8125 
-66.4453 
-65.8125 
-64.4531 
-65.1328 
-64.4531 
-63 
-63.7266 
-63 
-61.4531 
-62.2266 
-61.4531 
-59.8125 
-60.6328 
-59.8125 
-58.0781 
-58.9453 
-58.0781 
-56.25 
-57.1641 
-56.25 
-54.3281 
-55.2891 
-54.3281 
-52.3125 
-53.3203 
-52.3125 
-50.2031 
-51.2578 
-50.2031 
-48 
-49.1016 
-48 
-45.7031 
-46.8516 
-45.7031 
-43.3125 
-44.5078 
-43.3125 
-40.8281 
-42.0703 
-40.8281 
-38.25 
-39.5391 
-38.25 
-35.5781 
-36.9141 
-35.5781 
-32.8125 
-34.1953 
-32.8125 
-29.9531 
-31.3828 
-29.9531 
-27 
-28.4766 
-27 
-23.9531 
-25.4766 
-23.9531 
-20.8125 
-22.3828 
-20.8125 
-17.5781 
-19.1953 
-17.5781 
-14.25 
-15.9141 
-14.25 
-10.8281 
-12.5391 
-10.8281 
-7.3125 
-9.07031 
-7.3125 
-3.70313 
-5.50781 
-3.70313 
-3e-11 
-1.85156 
VECTORS GradSolution float
0 0 0 
0 0 0 
-29.625 -0 -0 
-29.625 -0 -0 
-29.625 -0 -0 
-28.875 -0 -0 
-28.875 -0 -0 
-28.875 -0 -0 
-28.125 -0 -0 
-28.125 -0 -0 
-28.125 -0 -0 
-27.375 -0 -0 
-27.375 -0 -0 
-27.375 -0 -0 
-26.625 -0 -0 
-26.625 -0 -0 
-26.625 -0 -0 
-25.875 -0 -0 
-25.875 -0 -0 
-25.875 -0 -0 
-25.125 -0 -0 
-25.125 -0 -0 
-25.125 -0 -0 
-24.375 -0 -0 
-24.375 -0 -0 
-24.375 -0 -0 
-23.625 -0 -0 
-23.625 -0 -0 
-23.625 -0 -0 
-22.875 -0 -0 
-22.875 -0 -0 
-22.875 -0 -0 
-22.125 -0 -0 
-22.125 -0 -0 
-22.125 -0 -0 
-21.375 -0 -0 
-21.375 -0 -0 
-21.375 -0 -0 
-20.625 -0 -0 
-20.625 -0 -0 
-20.625 -0 -0 
-19.875 -0 -0 
-19.875 -0 -0 
-19.875 -0 -0 
-19.125 -0 -0 
-19.125 -0 -0 
-19.125 -0 -0 
-18.375 -0 -0 
-18.375 -0 -0 
-18.375 -0 -0 
-17.625 -0 -0 
-17.625 -0 -0 
-17.625 -0 -0 
-16.875 -0 -0 
-16.875 -0 -0 
-16.875 -0 -0 
-16.125 -0 -0 
-16.125 -0 -0 
-16.125 -0 -0 
-15.375 -0 -0 
-15.375 -0 -0 
-15.375 -0 -0 
-14.625 -0 -0 
-14.625 -0 -0 
-14.625 -0 -0 
-13.875 -0 -0 
-13.875 -0 -0 
-13.875 -0 -0 
-13.125 -0 -0 
-13.125 -0 -0 
-13.125 -0 -0 
-12.375 -0 -0 
-12.375 -0 -0 
-12.375 -0 -0 
-11.625 -0 -0 
-11.625 -0 -0 
-11.625 -0 -0 
-10.875 -0 -0 
-10.875 -0 -0 
-10.875 -0 -0 
-10.125 -0 -0 
-10.125 -0 -0 
-10.125 -0 -0 
-9.375 -0 -0 
-9.375 -0 -0 
-9.375 -0 -0 
-8.625 -0 -0 
-8.625 -0 -0 
-8.625 -0 -0 
-7.875 -0 -0 
-7.875 -0 -0 
-7.875 -0 -0 
-7.125 -0 -0 
-7.125 -0 -0 
-7.125 -0 -0 
-6.375 -0 -0 
-6.375 -0 -0 
-6.375 -0 -0 
-5.625 -0 -0 
-5.625 -0 -0 
-5.625 -0 -0 
-4.875 -0 -0 
-4.875 -0 -0 
-4.875 -0 -0 
-4.125 -0 -0 
-4.125 -0 -0 
-4.125 -0 -0 
-3.375 -0 -0 
-3.375 -0 -0 
-3.375 -0 -0 
-2.625 -0 -0 
-2.625 -0 -0 
-2.625 -0 -0 
-1.875 -0 -0 
-1.875 -0 -0 
-1.875 -0 -0 
-1.125 -0 -0 
-1.125 -0 -0 
-1.125 -0 -0 
-0.375 -0 -0 
-0.375 -0 -0 
-0.375 -0 -0 
0.375 0 0 
0.375 0 0 
0.375 0 0 
1.125 0 0 
1.125 0 0 
1.125 0 0 
1.875 0 0 
1.875 0 0 
1.875 0 0 
2.625 0 0 
2.625 0 0 
2.625 0 0 
3.375 0 0 
3.375 0 0 
3.375 0 0 
4.125 0 0 
4.125 0 0 
4.125 0 0 
4.875 0 0 
4.875 0 0 
4.875 0 0 
5.625 0 0 
5.625 0 0 
5.625 0 0 
6.375 0 0 
6.375 0 0 
6.375 0 0 
7.125 0 0 
7.125 0 0 
7.125 0 0 
7.875 0 0 
7.875 0 0 
7.875 0 0 
8.625 0 0 
8.625 0 0 
8.625 0 0 
9.375 0 0 
9.375 0 0 
9.375 0 0 
10.125 0 0 
10.125 0 0 
10.125 0 0 
10.875 0 0 
10.875 0 0 
10.875 0 0 
11.625 0 0 
11.625 0 0 
11.625 0 0 
12.375 0 0 
12.375 0 0 
12.375 0 0 
13.125 0 0 
13.125 0 0 
13.125 0 0 
13.875 0 0 
13.875 0 0 
13.875 0 0 
14.625 0 0 
14.625 0 0 
14.625 0 0 
15.375 0 0 
15.375 0 0 
15.375 0 0 
16.125 0 0 
16.125 0 0 
16.125 0 0 
16.875 0 0 
16.875 0 0 
16.875 0 0 
17.625 0 0 
17.625 0 0 
17.625 0 0 
18.375 0 0 
18.375 0 0 
18.375 0 0 
19.125 0 0 
19.125 0 0 
19.125 0 0 
19.875 0 0 
19.875 0 0 
19.875 0 0 
20.625 0 0 
20.625 0 0 
20.625 0 0 
21.375 0 0 
21.375 0 0 
21.375 0 0 
22.125 0 0 
22.125 0 0 
22.125 0 0 
22.875 0 0 
22.875 0 0 
22.875 0 0 
23.625 0 0 
23.625 0 0 
23.625 0 0 
24.375 0 0 
24.375 0 0 
24.375 0 0 
25.125 0 0 
25.125 0 0 
25.125 0 0 
25.875 0 0 
25.875 0 0 
25.875 0 0 
26.625 0 0 
26.625 0 0 
26.625 0 0 
27.375 0 0 
27.375 0 0 
27.375 0 0 
28.125 0 0 
28.125 0 0 
28.125 0 0 
28.875 0 0 
28.875 0 0 
28.875 0 0 
29.625 0 0 
29.625 0 0 
29.625 0 0 
