# vtk DataFile Version 3.0
TPZGeoMesh VTK Visualization
ASCII

DATASET UNSTRUCTURED_GRID
POINTS 122 float
0 0 0 
10 0 0 
0 0 0 
0.25 0 0 
0.125 0 0 
0.25 0 0 
0.5 0 0 
0.375 0 0 
0.5 0 0 
0.75 0 0 
0.625 0 0 
0.75 0 0 
1 0 0 
0.875 0 0 
1 0 0 
1.25 0 0 
1.125 0 0 
1.25 0 0 
1.5 0 0 
1.375 0 0 
1.5 0 0 
1.75 0 0 
1.625 0 0 
1.75 0 0 
2 0 0 
1.875 0 0 
2 0 0 
2.25 0 0 
2.125 0 0 
2.25 0 0 
2.5 0 0 
2.375 0 0 
2.5 0 0 
2.75 0 0 
2.625 0 0 
2.75 0 0 
3 0 0 
2.875 0 0 
3 0 0 
3.25 0 0 
3.125 0 0 
3.25 0 0 
3.5 0 0 
3.375 0 0 
3.5 0 0 
3.75 0 0 
3.625 0 0 
3.75 0 0 
4 0 0 
3.875 0 0 
4 0 0 
4.25 0 0 
4.125 0 0 
4.25 0 0 
4.5 0 0 
4.375 0 0 
4.5 0 0 
4.75 0 0 
4.625 0 0 
4.75 0 0 
5 0 0 
4.875 0 0 
5 0 0 
5.25 0 0 
5.125 0 0 
5.25 0 0 
5.5 0 0 
5.375 0 0 
5.5 0 0 
5.75 0 0 
5.625 0 0 
5.75 0 0 
6 0 0 
5.875 0 0 
6 0 0 
6.25 0 0 
6.125 0 0 
6.25 0 0 
6.5 0 0 
6.375 0 0 
6.5 0 0 
6.75 0 0 
6.625 0 0 
6.75 0 0 
7 0 0 
6.875 0 0 
7 0 0 
7.25 0 0 
7.125 0 0 
7.25 0 0 
7.5 0 0 
7.375 0 0 
7.5 0 0 
7.75 0 0 
7.625 0 0 
7.75 0 0 
8 0 0 
7.875 0 0 
8 0 0 
8.25 0 0 
8.125 0 0 
8.25 0 0 
8.5 0 0 
8.375 0 0 
8.5 0 0 
8.75 0 0 
8.625 0 0 
8.75 0 0 
9 0 0 
8.875 0 0 
9 0 0 
9.25 0 0 
9.125 0 0 
9.25 0 0 
9.5 0 0 
9.375 0 0 
9.5 0 0 
9.75 0 0 
9.625 0 0 
9.75 0 0 
10 0 0 
9.875 0 0 

CELLS 42 164
1 0
1 1
3 2 3 4
3 5 6 7
3 8 9 10
3 11 12 13
3 14 15 16
3 17 18 19
3 20 21 22
3 23 24 25
3 26 27 28
3 29 30 31
3 32 33 34
3 35 36 37
3 38 39 40
3 41 42 43
3 44 45 46
3 47 48 49
3 50 51 52
3 53 54 55
3 56 57 58
3 59 60 61
3 62 63 64
3 65 66 67
3 68 69 70
3 71 72 73
3 74 75 76
3 77 78 79
3 80 81 82
3 83 84 85
3 86 87 88
3 89 90 91
3 92 93 94
3 95 96 97
3 98 99 100
3 101 102 103
3 104 105 106
3 107 108 109
3 110 111 112
3 113 114 115
3 116 117 118
3 119 120 121

CELL_TYPES 42
1
1
21
21
21
21
21
21
21
21
21
21
21
21
21
21
21
21
21
21
21
21
21
21
21
21
21
21
21
21
21
21
21
21
21
21
21
21
21
21
21
21

CELL_DATA 42
FIELD FieldData 1
material 1 42 int
3
3
1
1
1
1
1
1
1
1
1
1
1
1
1
1
1
1
1
1
1
1
1
1
1
1
1
1
1
1
1
1
1
1
1
1
1
1
1
1
1
1
FIELD FieldData 1
elindex 1 42 int
0
1
2
3
4
5
6
7
8
9
10
11
12
13
14
15
16
17
18
19
20
21
22
23
24
25
26
27
28
29
30
31
32
33
34
35
36
37
38
39
40
41
POINT_DATA 122
SCALARS Solution float
LOOKUP_TABLE default
-3e-11 
-3e-11 
-3e-11 
-7.3125 
-3.65625 
-7.3125 
-14.25 
-10.7813 
-14.25 
-20.8125 
-17.5313 
-20.8125 
-27 
-23.9063 
-27 
-32.8125 
-29.9063 
-32.8125 
-38.25 
-35.5313 
-38.25 
-43.3125 
-40.7812 
-43.3125 
-48 
-45.6562 
-48 
-52.3125 
-50.1562 
-52.3125 
-56.25 
-54.2812 
-56.25 
-59.8125 
-58.0312 
-59.8125 
-63 
-61.4062 
-63 
-65.8125 
-64.4062 
-65.8125 
-68.25 
-67.0312 
-68.25 
-70.3125 
-69.2812 
-70.3125 
-72 
-71.1562 
-72 
-73.3125 
-72.6562 
-73.3125 
-74.25 
-73.7812 
-74.25 
-74.8125 
-74.5313 
-74.8125 
-75 
-74.9063 
-75 
-74.8125 
-74.9063 
-74.8125 
-74.25 
-74.5313 
-74.25 
-73.3125 
-73.7813 
-73.3125 
-72 
-72.6563 
-72 
-70.3125 
-71.1563 
-70.3125 
-68.25 
-69.2813 
-68.25 
-65.8125 
-67.0313 
-65.8125 
-63 
-64.4063 
-63 
-59.8125 
-61.4063 
-59.8125 
-56.25 
-58.0313 
-56.25 
-52.3125 
-54.2813 
-52.3125 
-48 
-50.1563 
-48 
-43.3125 
-45.6563 
-43.3125 
-38.25 
-40.7813 
-38.25 
-32.8125 
-35.5313 
-32.8125 
-27 
-29.9063 
-27 
-20.8125 
-23.9063 
-20.8125 
-14.25 
-17.5313 
-14.25 
-7.3125 
-10.7813 
-7.3125 
-3e-11 
-3.65625 
VECTORS GradSolution float
0 0 0 
0 0 0 
-29.25 -0 -0 
-29.25 -0 -0 
-29.25 -0 -0 
-27.75 -0 -0 
-27.75 -0 -0 
-27.75 -0 -0 
-26.25 -0 -0 
-26.25 -0 -0 
-26.25 -0 -0 
-24.75 -0 -0 
-24.75 -0 -0 
-24.75 -0 -0 
-23.25 -0 -0 
-23.25 -0 -0 
-23.25 -0 -0 
-21.75 -0 -0 
-21.75 -0 -0 
-21.75 -0 -0 
-20.25 -0 -0 
-20.25 -0 -0 
-20.25 -0 -0 
-18.75 -0 -0 
-18.75 -0 -0 
-18.75 -0 -0 
-17.25 -0 -0 
-17.25 -0 -0 
-17.25 -0 -0 
-15.75 -0 -0 
-15.75 -0 -0 
-15.75 -0 -0 
-14.25 -0 -0 
-14.25 -0 -0 
-14.25 -0 -0 
-12.75 -0 -0 
-12.75 -0 -0 
-12.75 -0 -0 
-11.25 -0 -0 
-11.25 -0 -0 
-11.25 -0 -0 
-9.75 -0 -0 
-9.75 -0 -0 
-9.75 -0 -0 
-8.25 -0 -0 
-8.25 -0 -0 
-8.25 -0 -0 
-6.75 -0 -0 
-6.75 -0 -0 
-6.75 -0 -0 
-5.25 -0 -0 
-5.25 -0 -0 
-5.25 -0 -0 
-3.75 -0 -0 
-3.75 -0 -0 
-3.75 -0 -0 
-2.25 -0 -0 
-2.25 -0 -0 
-2.25 -0 -0 
-0.75 -0 -0 
-0.75 -0 -0 
-0.75 -0 -0 
0.75 0 0 
0.75 0 0 
0.75 0 0 
2.25 0 0 
2.25 0 0 
2.25 0 0 
3.75 0 0 
3.75 0 0 
3.75 0 0 
5.25 0 0 
5.25 0 0 
5.25 0 0 
6.75 0 0 
6.75 0 0 
6.75 0 0 
8.25 0 0 
8.25 0 0 
8.25 0 0 
9.75 0 0 
9.75 0 0 
9.75 0 0 
11.25 0 0 
11.25 0 0 
11.25 0 0 
12.75 0 0 
12.75 0 0 
12.75 0 0 
14.25 0 0 
14.25 0 0 
14.25 0 0 
15.75 0 0 
15.75 0 0 
15.75 0 0 
17.25 0 0 
17.25 0 0 
17.25 0 0 
18.75 0 0 
18.75 0 0 
18.75 0 0 
20.25 0 0 
20.25 0 0 
20.25 0 0 
21.75 0 0 
21.75 0 0 
21.75 0 0 
23.25 0 0 
23.25 0 0 
23.25 0 0 
24.75 0 0 
24.75 0 0 
24.75 0 0 
26.25 0 0 
26.25 0 0 
26.25 0 0 
27.75 0 0 
27.75 0 0 
27.75 0 0 
29.25 0 0 
29.25 0 0 
29.25 0 0 
